HEADER
"PSFversion" "1.00"
"M11v" "m11v"
"M10v" "m10v"
"M9v" "m9v"
"M8v" "m8v"
"M7v" "m7v"
"M0v" "m0v"
"M6v" "m6v"
"M11n M10n M9n M8n M7n M0n" "NCSU_Devices_FreePDK45_PMOS_VTL_hspiceD"
"M5v" "m5v"
"M4v" "m4v"
"M3v" "m3v"
"M2v" "m2v"
"M1v" "m1v"
"I0v" "xi0v"
"M6n M5n M4n M3n M2n M1n" "NCSU_Devices_FreePDK45_NMOS_VTL_hspiceD"
"I0n" "inverter"
