HEADER
"PSFversion" "1.00"
"Bv" "bv"
"VDDv" "vddv"
"Fv" "fv"
"Cv" "cv"
"Dv" "dv"
"GNDv" "gndv"
"Y_bv" "y_bv"
"Av" "av"
"Ev" "ev"
"Yv" "yv"
