HEADER
"PSFversion" "1.00"
"Outputv" "outputv"
"VDDv" "vddv"
"Inputv" "inputv"
"GNDv" "gndv"
