HEADER
"PSFversion" "1.00"
"Dv" ",Dv"
"Gv" ",Gv"
"Sv" ",Sv"
"Bv" ",Bv"
