HEADER
"PSFversion" "1.00"
"__NEXT_FILE__" "fan_in_6_comb"
