HEADER
"PSFversion" "1.00"
"Dv" "dv"
"CKv" "ckv"
"Qv" "qv"
"VDDv" "vddv"
"GNDv" "gndv"
